#############################################
# Avant-garde Materials Simulation
#############################################

data_g55
_cell_length_a 5.6928779266
_cell_length_b 8.0992034969
_cell_length_c 8.7724955314
_cell_angle_alpha 64.8690630449
_cell_angle_beta 80.3655290003
_cell_angle_gamma 89.1860333990
_cell_volume 360.2934900483
_exptl_crystal_density_diffrn 1.3933936348
_total_energy -5944.9508895819
_electrostatic_energy 0.0000000000
_vdw_energy -60.9096322817
_bond_energy 0.0000000000
_angle_energy 0.0000000000
_stretch_bend_coupling_energy 0.0000000000
_torsion_energy 0.0000000000
_inversion_energy 0.0000000000
_last_operation minimize_crystal_energy
_last_operation_comment none
_symmetry_cell_setting triclinic
_symmetry_space_group_name_H-M 'P -1'
_symmetry_Int_Tables_number 2
loop_
_symmetry_equiv_pos_site_id
_symmetry_equiv_pos_as_xyz
1 x,y,z
2 -x,-y,-z
loop_
_atom_site_label
_atom_site_type_symbol
_atom_site_fract_x
_atom_site_fract_y
_atom_site_fract_z
_atom_site_fftype
_atom_site_charge
_atom_site_hybridization
C1_0 C 0.4088511482 0.2484714682 0.8854336364 C3 0.3091353200 SP2
C2_0 C 0.6314349147 0.3457730883 0.8304580996 C3 -0.1971650190 SP2
C3_0 C 0.3163188695 0.1624658138 1.0607807317 C3 -0.1971650190 SP2
N1_0 N 0.2645812276 0.2367066743 0.7735809112 N -0.4401770110 SP2
C4_0 C 0.7554511055 0.3607231983 0.9490515402 C3 -0.1344808889 SP2
H1_0 H 0.7024867487 0.4149228641 0.6942826016 H 0.1156238600 UNKNOWN
C5_0 C 0.4410152790 0.1741820705 1.1792189080 C3 -0.1344808889 SP2
H2_0 H 0.1434694203 0.0857855908 1.1049791160 H 0.1156238600 UNKNOWN
C6_0 C 0.3272586991 0.2407021735 0.6159198871 C3 0.5260851742 SP2
H3_0 H 0.0866665292 0.2150268454 0.8227301221 H 0.2804973540 UNKNOWN
H4_0 H 0.9217039240 0.4459073244 0.9048107373 H 0.1156238600 UNKNOWN
C7_0 C 0.6594235537 0.2773627591 1.1246004894 C3 0.1162155177 SP2
H5_0 H 0.3693104158 0.1024396972 1.3151126414 H 0.1156238600 UNKNOWN
O1_0 O 0.5388120352 0.2675062086 0.5382096818 O1 -0.4733308640 SP2
C8_0 C 0.1217056278 0.2017346126 0.5453359807 C4 -0.5749541242 SP3
O2_0 O 0.7812164786 0.2993420649 1.2366535091 O2 -0.4682814069 SP3
H6_0 H 0.1448908250 0.2843121672 0.4069699446 H 0.1786088230 UNKNOWN
H7_0 H -0.0530761164 0.2245038766 0.6052222349 H 0.1786088230 UNKNOWN
H8_0 H 0.1210846522 0.0569254849 0.5687995635 H 0.1786088230 UNKNOWN
H9_0 H 0.6716460495 0.2779185408 1.3465748177 H 0.3897799470 UNKNOWN
#END
